phonopy:
  version: 2.14.0
  calculator: cp2k
  frequency_unit_conversion_factor: 15.633302
  symmetry_tolerance: 1.00000e-05
  configuration:
    cell_filename: "Punitcell.inp"
    create_displacements: ".true."
    dim: "2 2 2"
    calculator: "cp2k"

physical_unit:
  atomic_mass: "AMU"
  length: "angstrom"
  force_constants: "hartree/angstrom.au"

space_group:
  type: "P6_3mc"
  number: 186
  Hall_symbol: "P 6c -2c"

supercell_matrix:
- [   2,   0,   0 ]
- [   0,   2,   0 ]
- [   0,   0,   2 ]

primitive_cell:
  lattice:
  - [     3.270130505763266,     0.000000000000000,     0.000000000000000 ] # a
  - [    -1.635065252881633,     2.832016091681443,     0.000000000000000 ] # b
  - [     0.000000000000000,     0.000000000000000,     5.154870000000000 ] # c
  points:
  - symbol: Ga # 1
    coordinates: [  0.333333333333333,  0.666666666666667,  0.999997994634201 ]
    mass: 69.723000
  - symbol: Ga # 2
    coordinates: [  0.666666666666667,  0.333333333333333,  0.499997994634201 ]
    mass: 69.723000
  - symbol: N  # 3
    coordinates: [  0.333333333333333,  0.666666666666667,  0.378504358208840 ]
    mass: 14.006700
  - symbol: N  # 4
    coordinates: [  0.666666666666667,  0.333333333333333,  0.878504358208840 ]
    mass: 14.006700
  reciprocal_lattice: # without 2pi
  - [     0.305798193141712,     0.176552669128069,     0.000000000000000 ] # a*
  - [     0.000000000000000,     0.353105338256137,     0.000000000000000 ] # b*
  - [     0.000000000000000,     0.000000000000000,     0.193991313069001 ] # c*

unit_cell:
  lattice:
  - [     3.270130505763266,     0.000000000000000,     0.000000000000000 ] # a
  - [    -1.635065252881633,     2.832016091681443,     0.000000000000000 ] # b
  - [     0.000000000000000,     0.000000000000000,     5.154870000000000 ] # c
  points:
  - symbol: Ga # 1
    coordinates: [  0.333333333333333,  0.666666666666667,  0.999997994634201 ]
    mass: 69.723000
    reduced_to: 1
  - symbol: Ga # 2
    coordinates: [  0.666666666666667,  0.333333333333333,  0.499997994634201 ]
    mass: 69.723000
    reduced_to: 2
  - symbol: N  # 3
    coordinates: [  0.333333333333333,  0.666666666666667,  0.378504358208840 ]
    mass: 14.006700
    reduced_to: 3
  - symbol: N  # 4
    coordinates: [  0.666666666666667,  0.333333333333333,  0.878504358208840 ]
    mass: 14.006700
    reduced_to: 4

supercell:
  lattice:
  - [     6.540261011526532,     0.000000000000000,     0.000000000000000 ] # a
  - [    -3.270130505763266,     5.664032183362885,     0.000000000000000 ] # b
  - [     0.000000000000000,     0.000000000000000,    10.309740000000000 ] # c
  points:
  - symbol: Ga # 1
    coordinates: [  0.166666666666667,  0.333333333333333,  0.499998997317100 ]
    mass: 69.723000
    reduced_to: 1
  - symbol: Ga # 2
    coordinates: [  0.666666666666667,  0.333333333333333,  0.499998997317100 ]
    mass: 69.723000
    reduced_to: 1
  - symbol: Ga # 3
    coordinates: [  0.166666666666667,  0.833333333333333,  0.499998997317100 ]
    mass: 69.723000
    reduced_to: 1
  - symbol: Ga # 4
    coordinates: [  0.666666666666667,  0.833333333333333,  0.499998997317100 ]
    mass: 69.723000
    reduced_to: 1
  - symbol: Ga # 5
    coordinates: [  0.166666666666667,  0.333333333333333,  0.999998997317100 ]
    mass: 69.723000
    reduced_to: 1
  - symbol: Ga # 6
    coordinates: [  0.666666666666667,  0.333333333333333,  0.999998997317100 ]
    mass: 69.723000
    reduced_to: 1
  - symbol: Ga # 7
    coordinates: [  0.166666666666667,  0.833333333333333,  0.999998997317100 ]
    mass: 69.723000
    reduced_to: 1
  - symbol: Ga # 8
    coordinates: [  0.666666666666667,  0.833333333333333,  0.999998997317100 ]
    mass: 69.723000
    reduced_to: 1
  - symbol: Ga # 9
    coordinates: [  0.333333333333333,  0.166666666666667,  0.249998997317100 ]
    mass: 69.723000
    reduced_to: 9
  - symbol: Ga # 10
    coordinates: [  0.833333333333333,  0.166666666666667,  0.249998997317100 ]
    mass: 69.723000
    reduced_to: 9
  - symbol: Ga # 11
    coordinates: [  0.333333333333333,  0.666666666666667,  0.249998997317100 ]
    mass: 69.723000
    reduced_to: 9
  - symbol: Ga # 12
    coordinates: [  0.833333333333333,  0.666666666666667,  0.249998997317100 ]
    mass: 69.723000
    reduced_to: 9
  - symbol: Ga # 13
    coordinates: [  0.333333333333333,  0.166666666666667,  0.749998997317100 ]
    mass: 69.723000
    reduced_to: 9
  - symbol: Ga # 14
    coordinates: [  0.833333333333333,  0.166666666666667,  0.749998997317100 ]
    mass: 69.723000
    reduced_to: 9
  - symbol: Ga # 15
    coordinates: [  0.333333333333333,  0.666666666666667,  0.749998997317100 ]
    mass: 69.723000
    reduced_to: 9
  - symbol: Ga # 16
    coordinates: [  0.833333333333333,  0.666666666666667,  0.749998997317100 ]
    mass: 69.723000
    reduced_to: 9
  - symbol: N  # 17
    coordinates: [  0.166666666666667,  0.333333333333333,  0.189252179104420 ]
    mass: 14.006700
    reduced_to: 17
  - symbol: N  # 18
    coordinates: [  0.666666666666667,  0.333333333333333,  0.189252179104420 ]
    mass: 14.006700
    reduced_to: 17
  - symbol: N  # 19
    coordinates: [  0.166666666666667,  0.833333333333333,  0.189252179104420 ]
    mass: 14.006700
    reduced_to: 17
  - symbol: N  # 20
    coordinates: [  0.666666666666667,  0.833333333333333,  0.189252179104420 ]
    mass: 14.006700
    reduced_to: 17
  - symbol: N  # 21
    coordinates: [  0.166666666666667,  0.333333333333333,  0.689252179104420 ]
    mass: 14.006700
    reduced_to: 17
  - symbol: N  # 22
    coordinates: [  0.666666666666667,  0.333333333333333,  0.689252179104420 ]
    mass: 14.006700
    reduced_to: 17
  - symbol: N  # 23
    coordinates: [  0.166666666666667,  0.833333333333333,  0.689252179104420 ]
    mass: 14.006700
    reduced_to: 17
  - symbol: N  # 24
    coordinates: [  0.666666666666667,  0.833333333333333,  0.689252179104420 ]
    mass: 14.006700
    reduced_to: 17
  - symbol: N  # 25
    coordinates: [  0.333333333333333,  0.166666666666667,  0.439252179104420 ]
    mass: 14.006700
    reduced_to: 25
  - symbol: N  # 26
    coordinates: [  0.833333333333333,  0.166666666666667,  0.439252179104420 ]
    mass: 14.006700
    reduced_to: 25
  - symbol: N  # 27
    coordinates: [  0.333333333333333,  0.666666666666667,  0.439252179104420 ]
    mass: 14.006700
    reduced_to: 25
  - symbol: N  # 28
    coordinates: [  0.833333333333333,  0.666666666666667,  0.439252179104420 ]
    mass: 14.006700
    reduced_to: 25
  - symbol: N  # 29
    coordinates: [  0.333333333333333,  0.166666666666667,  0.939252179104420 ]
    mass: 14.006700
    reduced_to: 25
  - symbol: N  # 30
    coordinates: [  0.833333333333333,  0.166666666666667,  0.939252179104420 ]
    mass: 14.006700
    reduced_to: 25
  - symbol: N  # 31
    coordinates: [  0.333333333333333,  0.666666666666667,  0.939252179104420 ]
    mass: 14.006700
    reduced_to: 25
  - symbol: N  # 32
    coordinates: [  0.833333333333333,  0.666666666666667,  0.939252179104420 ]
    mass: 14.006700
    reduced_to: 25

displacements:
- atom:    1
  displacement:
    [   0.0053568087528730,  0.0000000000000000,  0.0084442051126878 ]
- atom:    1
  displacement:
    [  -0.0053568087528730,  0.0000000000000000, -0.0084442051126878 ]
- atom:   17
  displacement:
    [   0.0053568087528730,  0.0000000000000000,  0.0084442051126878 ]
- atom:   17
  displacement:
    [  -0.0053568087528730,  0.0000000000000000, -0.0084442051126878 ]
